 BINARY LJ INPUT
 
        2000  atoms
 
 2 atom types
 
 0.0    9.41000000000000      xlo xhi
 0.0    9.41000000000000      ylo yhi
 0.0    28.2300000000000      zlo zhi
 Masses
 
 1           1
 2           1
 
 Atoms
 
      1 1     0.000004    0.239771    9.951531
      2 2     6.275665    9.062353   23.664876
      3 1     3.155691    8.613229   22.467232
      4 2     7.835642    3.246852   24.593522
      5 1     0.846132    8.358751   19.788634
      6 2     6.912140    2.824654    1.403531
      7 1     8.546062    0.918967    1.138047
      8 2     0.800083    5.258505   26.153733
      9 1     0.711780    8.579940    2.592140
     10 2     6.001382    8.020069    3.418024
     11 1     9.358946    7.323336    0.555144
     12 2     1.598417    9.360535   21.276739
     13 1     2.051133    6.203943   15.216489
     14 2     4.517396    7.897121    0.717612
     15 1     9.310094    5.512102   21.654327
     16 2     4.185727    6.676443   22.429472
     17 1     4.128180    1.964369   20.639296
     18 2     6.264529    6.794718    5.969826
     19 1     2.900647    2.474726   21.237314
     20 2     5.173567    5.991572   17.813422
     21 1     4.655919    4.429240    3.458597
     22 2     5.033378    1.827018   27.323968
     23 1     5.544656    0.165835    8.873896
     24 2     5.206582    6.363827    0.476615
     25 1     2.499822    4.336881   23.641214
     26 2     2.154448    5.867281    1.283242
     27 1     4.923524    7.619126    9.366290
     28 2     8.393043    6.613491   21.060502
     29 1     2.437869    6.316933   18.489926
     30 2     8.802538    9.139535   14.141882
     31 1     4.044425    2.984058   17.042007
     32 2     1.587547    8.717949   15.119012
     33 1     5.060612    5.315434   10.437102
     34 2     4.592940    1.812633   17.016662
     35 1     6.013583    4.495919   21.076424
     36 2     6.218251    9.173547   25.103893
     37 1     7.376458    9.200860   18.181383
     38 2     2.893330    2.236697    8.002680
     39 1     8.839560    2.071340   19.093167
     40 2     5.157571    2.413987    4.860340
     41 1     7.940600    8.156780   12.872670
     42 2     5.720047    5.928604    5.365804
     43 1     0.852106    6.650306    7.245856
     44 2     2.773084    3.565515    4.370299
     45 1     8.171642    9.056423    5.337079
     46 2     6.324892    1.896055   27.106387
     47 1     5.661380    6.931803   26.065801
     48 2     5.356809    1.712926   17.860240
     49 1     7.615506    1.456065   16.907282
     50 2     6.198337    3.546888   23.078211
     51 1     5.126844    9.242703   26.226124
     52 2     7.642167    0.508644    5.681006
     53 1     5.940620    0.987994    4.622196
     54 2     4.879721    1.968275    7.547783
     55 1     0.653622    0.191496   22.734936
     56 2     5.094633    8.855322   20.306856
     57 1     5.085682    7.293804    1.216759
     58 2     2.366304    5.786147   10.092554
     59 1     2.087627    8.572791    5.747093
     60 2     8.988792    8.147599   19.574877
     61 1     2.244800    3.563603   25.577307
     62 2     3.664713    5.110736   20.495859
     63 1     8.496050    3.109880    4.342119
     64 2     7.813087    5.816536   22.428628
     65 1     0.478297    6.954823   16.988822
     66 2     8.903724    1.957980   25.125318
     67 1     4.503138    3.191213   24.863339
     68 2     6.070526    4.740567   17.388244
     69 1     1.972409    1.241599    7.323242
     70 2     6.465136    2.264778   23.964195
     71 1     6.354436    1.491160    9.828007
     72 2     3.777236    5.124811    9.667470
     73 1     7.225817    1.908720   21.493910
     74 2     5.038646    4.274297    5.616918
     75 1     7.081670    2.756258    5.713915
     76 2     5.966566    3.103180   21.587885
     77 1     4.016823    0.685002   19.299164
     78 2     9.134677    7.641579    4.494806
     79 1     7.457798    8.785946    1.169049
     80 2     2.176360    4.357988    8.496511
     81 1     3.868730    5.358297   24.842251
     82 2     8.347857    6.597612    8.387783
     83 1     4.850079    5.361944   13.097608
     84 2     5.973130    5.543694   18.177805
     85 1     3.294003    5.239837   21.664462
     86 2     6.252872    0.035642   12.059678
     87 1     9.098120    0.634142   20.761872
     88 2     3.178364    0.627090   23.403785
     89 1     3.897972    0.514994   25.496542
     90 2     2.852538    1.118523   11.311603
     91 1     8.923561    3.840963   16.885293
     92 2     6.953026    9.202065    6.475381
     93 1     3.425657    2.896102   27.231046
     94 2     8.423919    0.576119   23.838712
     95 1     3.042489    3.285501    7.619543
     96 2     9.166040    8.881826   24.665236
     97 1     4.461355    3.736892   20.874825
     98 2     4.988553    5.326170    3.165438
     99 1     0.941844    4.296431   18.801882
    100 2     5.912073    0.733399   24.389181
    101 1     6.909244    7.464480    7.111619
    102 2     8.424528    0.794648   21.784285
    103 1     0.406255    4.321325   10.439968
    104 2     8.365728    2.830732    6.407336
    105 1     0.408921    8.172098   21.789152
    106 2     5.615871    8.692911    1.819205
    107 1     6.989069    1.408079   15.422534
    108 2     1.412016    0.320372    9.426920
    109 1     1.063177    2.660534   12.512767
    110 2     1.090174    3.835793    4.156579
    111 1     0.602873    1.964913   24.433632
    112 2     0.631704    4.582984   27.449527
    113 1     3.776967    1.918395   25.935855
    114 2     8.390031    5.283356   11.636414
    115 1     6.975153    0.972741   27.412026
    116 2     1.537128    3.829821   13.811420
    117 1     3.503376    7.756366    7.132762
    118 2     8.921865    4.816736   20.723756
    119 1     6.013428    0.300936    3.971102
    120 2     8.853015    1.906717   24.194550
    121 1     2.126836    5.576518   23.909310
    122 2     5.233125    6.539205    7.236938
    123 1     6.062014    8.338907   26.312547
    124 2     0.940867    7.741506   24.159908
    125 1     4.652796    6.516700   15.752633
    126 2     7.511427    6.321989   13.575278
    127 1     0.953767    6.664367   15.701125
    128 2     3.284429    3.339579    6.056673
    129 1     1.755075    2.144333   10.183924
    130 2     6.907485    3.053714   19.715439
    131 1     3.793422    4.149786    9.685840
    132 2     7.790028    7.173279   18.765496
    133 1     8.267940    7.947496   27.881227
    134 2     7.964196    1.944334   18.124645
    135 1     1.289139    1.813280   27.289992
    136 2     3.393573    1.517887    0.476354
    137 1     4.682174    9.141415   17.959743
    138 2     8.316499    7.967448   17.680421
    139 1     0.560729    3.085798    8.518596
    140 2     1.164873    8.528755    7.143993
    141 1     1.553478    2.610597   27.852276
    142 2     5.424165    5.200937   16.692029
    143 1     7.204028    7.999179   17.883566
    144 2     5.412912    1.330171   25.110884
    145 1     0.848383    9.061117   10.725667
    146 2     9.079550    1.802552   17.831423
    147 1     4.252459    4.307180   25.762073
    148 2     5.614347    0.426116    2.544778
    149 1     4.661432    5.695246    2.153908
    150 2     4.454164    7.822331    3.365352
    151 1     0.452983    6.584365   25.538441
    152 2     2.968656    0.553686    2.795889
    153 1     7.784488    3.018761    7.857595
    154 2     3.272176    1.724196    8.640141
    155 1     5.384282    3.501896    3.947290
    156 2     9.221103    4.863099   15.054733
    157 1     2.420765    3.137821   19.717178
    158 2     1.591371    3.131340   18.607049
    159 1     5.075143    4.011339   23.431089
    160 2     8.664610    9.100536   15.250886
    161 1     6.916925    9.057676   15.402511
    162 2     1.967211    6.446621   16.101044
    163 1     7.408299    4.655501   23.363808
    164 2     0.852090    8.066128    8.811671
    165 1     3.658973    3.732039   10.874491
    166 2     4.297591    7.331525   21.249861
    167 1     8.937564    3.398970    0.454688
    168 2     8.513436    6.159632   18.992439
    169 1     0.711699    1.523384   16.726472
    170 2     3.634841    5.377910   14.681936
    171 1     5.383265    9.199014   21.652792
    172 2     8.007397    2.153228   27.147158
    173 1     2.901817    2.481428   15.323330
    174 2     2.165453    6.753887   27.247341
    175 1     1.106003    8.822393   22.821909
    176 2     2.617532    5.077332   20.544734
    177 1     5.384864    4.676743   25.164459
    178 2     6.777236    0.960036    1.668934
    179 1     6.954430    2.025100    7.853141
    180 2     3.643264    0.048939   24.023602
    181 1     7.914686    0.974789   23.167352
    182 2     3.865737    5.620307   18.289705
    183 1     0.687182    3.111299   26.978414
    184 2     5.256744    6.068475   12.085408
    185 1     7.913153    5.971114   14.462192
    186 2     6.757683    1.403455    0.411511
    187 1     3.548526    3.390958   21.581959
    188 2     8.602782    9.278752   12.622728
    189 1     7.048736    1.841847   20.362606
    190 2     1.154015    4.545777    9.828870
    191 1     4.974555    6.220904   14.641996
    192 2     5.626380    2.282425   15.912403
    193 1     9.267945    6.368772   22.449412
    194 2     7.991213    3.351172   14.421862
    195 1     5.063534    2.941149   23.577878
    196 2     6.579257    7.842519   20.687892
    197 1     3.330962    6.644971   23.874527
    198 2     5.702565    2.206107    3.423117
    199 1     1.903960    2.661560   25.108993
    200 2     7.431870    3.644267   26.585723
    201 1     4.256087    9.348188   16.577544
    202 2     3.457975    8.141114   24.009313
    203 1     8.661215    2.144596    0.800137
    204 2     0.510640    0.295155    2.135525
    205 1     4.253706    4.828255   16.197916
    206 2     0.838828    5.853623   15.318618
    207 1     6.982392    0.419661   16.443915
    208 2     1.988770    7.758763   10.885790
    209 1     5.354778    3.640736   20.625132
    210 2     2.695076    0.142333   19.927139
    211 1     1.308376    0.606333    0.635817
    212 2     0.440403    0.847118   25.526416
    213 1     3.095582    8.233746   13.841248
    214 2     6.571201    7.865013    2.440251
    215 1     3.823889    5.957755   10.183935
    216 2     5.524491    2.959975   17.963220
    217 1     6.648161    6.042617    1.147518
    218 2     1.191062    5.609784   12.847064
    219 1     8.176998    2.388895   22.202504
    220 2     7.242073    2.971433   17.032012
    221 1     2.808588    1.941663   27.051701
    222 2     5.533853    0.533672   12.426934
    223 1     7.806548    4.556681   25.771160
    224 2     9.096534    6.710680    7.154070
    225 1     1.017592    2.865271   17.308793
    226 2     3.653116    7.199909    2.925044
    227 1     0.105820    9.295184   19.263004
    228 2     0.055416    9.040493    9.094229
    229 1     2.908580    4.625991    5.155483
    230 2     9.096001    1.641609    6.168363
    231 1     5.103104    4.914305   15.274782
    232 2     4.840459    5.657502    5.789942
    233 1     8.964214    2.717814    2.471251
    234 2     2.207360    6.568214   22.230385
    235 1     6.211458    4.694812   14.472179
    236 2     6.486056    5.681524    1.990465
    237 1     2.761407    5.340047   22.851797
    238 2     5.072491    0.195286    9.724728
    239 1     8.553976    7.705485    3.516787
    240 2     8.498358    3.383866   11.611005
    241 1     7.120918    7.257835    3.746994
    242 2     4.423779    6.316869   12.869364
    243 1     2.323104    7.103230    7.887223
    244 2     9.179976    5.302762   27.252337
    245 1     6.289543    5.187831    9.301164
    246 2     4.444938    1.472731   19.517188
    247 1     1.559507    4.244018   27.953778
    248 2     4.476808    3.670430   27.797229
    249 1     7.734870    8.978382    3.482718
    250 2     3.753063    7.536503   14.281273
    251 1     0.353122    1.784872    7.533027
    252 2     9.058649    6.280610   13.947126
    253 1     6.489669    3.031177   14.278189
    254 2     6.134277    4.277176    4.765229
    255 1     7.666307    0.279783   15.393130
    256 2     1.225425    2.596551    4.489604
    257 1     8.275552    0.067309   18.127025
    258 2     3.101564    8.180309    1.358366
    259 1     0.648588    0.529389   16.262742
    260 2     0.563588    7.131479    9.631532
    261 1     8.319268    2.432744   23.522506
    262 2     0.088166    7.516795   23.757505
    263 1     4.793871    8.210778   22.483947
    264 2     5.877561    7.558923   15.055902
    265 1     3.586853    0.128996   14.534756
    266 2     2.082982    0.741599   17.539016
    267 1     8.361326    0.537205   19.054848
    268 2     7.895246    8.935932    6.387144
    269 1     7.458382    6.910823   16.901650
    270 2     7.223746    8.410085   18.728020
    271 1     4.055996    0.567741   17.999620
    272 2     5.890305    1.308870    6.526268
    273 1     1.531739    0.267972   11.049770
    274 2     6.481135    4.967206   19.242292
    275 1     0.290716    6.997379    1.898462
    276 2     1.801022    9.093894   26.186428
    277 1     6.187648    5.656539   21.730093
    278 2     9.164530    2.814912   26.698222
    279 1     4.049918    8.437905   19.898095
    280 2     1.057489    6.981453   18.923885
    281 1     2.778490    6.201544    7.670439
    282 2     6.318380    5.309306   20.343374
    283 1     5.962385    0.935745   11.184027
    284 2     3.127119    0.003465   20.952390
    285 1     0.208436    0.634897   13.847260
    286 2     7.241886    2.395469   14.150687
    287 1     3.895275    6.930263    5.444330
    288 2     7.634328    6.303539    5.700636
    289 1     7.887819    7.594462   16.329881
    290 2     3.744779    6.726919   20.195894
    291 1     3.996242    8.496216   14.146592
    292 2     5.452615    6.933591   15.618038
    293 1     6.343884    3.052715    7.680365
    294 2     7.898941    8.191155    2.755813
    295 1     7.446273    6.086968   11.264884
    296 2     1.797910    5.606499   26.861629
    297 1     7.838311    4.908982   24.553988
    298 2     3.476006    6.677464   17.491825
    299 1     6.628442    8.820005    3.103716
    300 2     3.384060    9.345993   27.270903
    301 1     7.175031    2.711740   26.098012
    302 2     8.757904    6.818806    4.844571
    303 1     4.584269    5.587289   27.753009
    304 2     8.325697    5.557707    4.230846
    305 1     0.832622    3.259879    2.483210
    306 2     4.451254    5.581511   21.030822
    307 1     1.756276    6.852269   23.731898
    308 2     3.738189    7.425091    8.126613
    309 1     4.570257    8.930838    4.053669
    310 2     2.832473    1.920490    6.672059
    311 1     3.848860    2.477485    4.642119
    312 2     4.684939    6.662267   27.608846
    313 1     1.040907    1.251894   12.763424
    314 2     7.604229    2.305373   19.066059
    315 1     4.857182    0.968715    7.070988
    316 2     7.065128    0.047815   12.961067
    317 1     0.522172    7.941714   27.342101
    318 2     5.208665    3.365184    0.038051
    319 1     5.855246    6.880801    9.044050
    320 2     8.006366    1.006000    3.176401
    321 1     4.057381    0.657774   27.773458
    322 2     7.332731    5.173044    4.516340
    323 1     9.160670    4.863155    6.643539
    324 2     5.660101    4.393966    0.688589
    325 1     5.770024    2.548699    8.399924
    326 2     6.996306    7.963596   24.307077
    327 1     6.037750    7.001252   22.844410
    328 2     6.851165    9.028428    4.659619
    329 1     5.530269    3.021556   24.481397
    330 2     5.884765    7.978697    1.227315
    331 1     7.932484    1.198121   21.123845
    332 2     3.149214    4.628072   11.822738
    333 1     4.788293    1.263438   12.415564
    334 2     7.934175    3.790885    3.882025
    335 1     5.122818    1.464188   13.870853
    336 2     4.955622    2.576353   26.037978
    337 1     7.788390    2.582930    2.089297
    338 2     1.048187    3.400923    1.246221
    339 1     2.831648    0.207413   17.860301
    340 2     2.581375    5.554242    3.139915
    341 1     1.962688    7.683274   16.386534
    342 2     9.077710    0.040088    4.971355
    343 1     5.821808    4.994089   11.243729
    344 2     5.994995    3.982077   13.449924
    345 1     0.156999    1.286466   19.769219
    346 2     1.185079    1.274682    2.386686
    347 1     9.208304    2.011070   16.902989
    348 2     7.947844    6.083496   24.455923
    349 1     1.764690    6.610092    3.245886
    350 2     6.998473    8.988286   13.915892
    351 1     4.316942    7.422685   11.640453
    352 2     1.008981    5.061876   15.826849
    353 1     6.658794    3.378204   24.317698
    354 2     2.116418    2.517279   13.365841
    355 1     7.799477    7.336341   25.191038
    356 2     7.282098    5.143542   15.210657
    357 1     8.210283    1.831066   15.204423
    358 2     8.268582    2.379981    8.972102
    359 1     7.360556    5.564101   20.201234
    360 2     1.139176    7.616546    0.651298
    361 1     8.697884    6.416136   25.087589
    362 2     8.061940    4.593653   27.524553
    363 1     5.030057    5.212421   18.416770
    364 2     6.278049    5.706899   23.872670
    365 1     6.939895    7.041619   25.981701
    366 2     5.599304    0.586979   27.664451
    367 1     5.932135    8.125268    9.488931
    368 2     1.785483    3.778986    5.372527
    369 1     1.123181    5.535472    0.967948
    370 2     4.909708    4.859964    4.384464
    371 1     0.433039    5.207761   20.556399
    372 2     7.125045    2.688793    3.740940
    373 1     0.021776    8.500010   16.678179
    374 2     8.740519    0.772719   13.456313
    375 1     3.358686    1.964286    1.765034
    376 2     7.419595    3.042013   21.073339
    377 1     1.022017    5.401165    1.907054
    378 2     8.921828    4.859751    7.575580
    379 1     1.782408    0.195587    3.490290
    380 2     2.135163    7.531924    4.435194
    381 1     5.475576    3.391718    7.739660
    382 2     2.564563    8.808089   19.160250
    383 1     7.667395    9.225873   10.421600
    384 2     2.529898    6.028594    0.169049
    385 1     5.548627    7.598753    4.856701
    386 2     0.432481    6.803715    6.116180
    387 1     0.228224    0.846923   24.364012
    388 2     0.827730    2.778747   20.143552
    389 1     7.172401    3.223431   13.066505
    390 2     1.081590    4.903833    2.679056
    391 1     1.391687    0.967757   20.981823
    392 2     8.998462    8.212227    1.211598
    393 1     5.184573    7.056126   21.730834
    394 2     0.601971    1.078339    9.489175
    395 1     3.934083    2.197533   18.931380
    396 2     1.527906    8.115324   12.467570
    397 1     0.709528    4.875947   16.662006
    398 2     6.420824    3.961829    7.378473
    399 1     9.311374    3.634749    7.470092
    400 2     6.540610    4.257011   18.299713
    401 1     8.195870    8.354052   24.607982
    402 2     6.439097    3.945632    3.602793
    403 1     6.165483    6.899423   20.459635
    404 2     0.892541    2.617651   22.156888
    405 1     6.770804    5.452322   12.258508
    406 2     9.125734    3.779964   18.874554
    407 1     9.278675    4.091840   11.877360
    408 2     0.611684    4.652980    4.885321
    409 1     1.640308    0.730039    8.323327
    410 2     0.009275    6.393834   19.112765
    411 1     2.466945    7.139735    2.106470
    412 2     4.494487    6.682039    9.593722
    413 1     0.113629    0.038748    0.060681
    414 2     1.853651    3.297867   26.832200
    415 1     2.869599    7.394004   16.215730
    416 2     4.061799    9.043677    9.773434
    417 1     6.549361    6.618404    4.589107
    418 2     1.276939    5.575197   10.917304
    419 1     0.246502    4.531784    3.197607
    420 2     8.230673    7.989149   21.755567
    421 1     7.299826    5.824600    3.103351
    422 2     7.291134    1.306508   10.219042
    423 1     7.034488    0.687402   23.357095
    424 2     3.238313    4.534584    6.981592
    425 1     0.373362    1.893450   13.124000
    426 2     4.998038    2.314035   12.122222
    427 1     6.698506    0.810808    6.670672
    428 2     3.826135    2.316864   10.074360
    429 1     6.519415    8.724594   27.019033
    430 2     5.329800    4.129747   21.725200
    431 1     1.669277    8.017160   26.104716
    432 2     1.738700    7.400630   10.075288
    433 1     8.508838    8.593520   20.798653
    434 2     2.569063    4.084216    7.430004
    435 1     2.178523    7.480097    6.898557
    436 2     0.819685    5.114767    4.065415
    437 1     4.242945    2.678987   23.290734
    438 2     6.357841    2.133997    4.370466
    439 1     5.693247    0.990769    1.820907
    440 2     0.861898    5.268532   21.382506
    441 1     3.100446    4.917790   24.275849
    442 2     9.252122    9.148970   18.392390
    443 1     4.552047    1.207127    4.893077
    444 2     4.114605    3.682613    8.277507
    445 1     6.296842    6.682930   17.597959
    446 2     2.307113    4.472999    1.624692
    447 1     1.049072    4.158839   13.065086
    448 2     8.897283    3.931297    6.658571
    449 1     2.075353    2.564615    2.588089
    450 2     8.676610    0.872716   11.688998
    451 1     1.815390    8.988167    1.695428
    452 2     5.565609    8.208783   21.261095
    453 1     4.863376    8.179896   19.286026
    454 2     0.231606    6.634703   11.788081
    455 1     2.088821    0.747847   20.339611
    456 2     9.370434    9.297314    7.976381
    457 1     5.545071    5.398637    1.160155
    458 2     3.933501    1.031671   20.141933
    459 1     6.429487    8.268921   11.293591
    460 2     2.504003    0.950908    9.358572
    461 1     7.736876    5.347203    8.131499
    462 2     6.260694    4.722400   25.700679
    463 1     8.924928    4.987426   25.214201
    464 2     9.311674    5.544850    4.402033
    465 1     5.954109    3.560156    2.538773
    466 2     7.150768    3.932986    1.725932
    467 1     7.447064    1.973306   28.118225
    468 2     3.361470    8.661356   10.535764
    469 1     7.496260    4.434224   13.622524
    470 2     0.321959    1.497221   18.474599
    471 1     7.253468    2.926989   11.019490
    472 2     3.032092    5.629268   13.738463
    473 1     4.459856    7.826519   17.223021
    474 2     6.775810    1.381821    3.845752
    475 1     1.068065    5.312882    6.842671
    476 2     9.211202    5.216790    1.841694
    477 1     5.824552    6.335320    3.214372
    478 2     7.888668    7.562237    4.153850
    479 1     4.601645    2.571181    9.205397
    480 2     2.039758    9.280577   16.203886
    481 1     2.532278    1.495850   21.033115
    482 2     6.003572    8.285731   27.767485
    483 1     1.771423    3.931143   17.293703
    484 2     6.955860    4.690943   10.599240
    485 1     7.121061    5.387325   18.693422
    486 2     2.820804    1.119962    3.877464
    487 1     9.198049    8.277412   14.003034
    488 2     4.844301    0.359527    7.797335
    489 1     3.969287    3.782321    5.205716
    490 2     0.719663    1.781051    2.985710
    491 1     6.243616    3.257623   18.926150
    492 2     5.864225    8.630712    8.735269
    493 1     1.747273    8.271542   27.421313
    494 2     5.187550    8.627470   16.833331
    495 1     3.124328    8.290863    5.042570
    496 2     0.245518    3.068836    6.494887
    497 1     6.216206    2.616635   11.026721
    498 2     6.419310    7.322979   26.740050
    499 1     7.081163    4.168165    9.250819
    500 2     8.880541    5.739786    9.148878
    501 1     0.769793    7.082005   10.611046
    502 2     3.285714    1.588780   22.329376
    503 1     2.313191    2.040803    4.731555
    504 2     4.219177    5.528371   25.814522
    505 1     2.174605    0.239858   27.274156
    506 2     1.591168    8.683196   24.608000
    507 1     3.177687    2.680611   11.013977
    508 2     3.100634    3.248796   14.166952
    509 1     1.698037    1.804862   15.530389
    510 2     6.723318    6.426764   11.918412
    511 1     8.736603    8.727369   10.459356
    512 2     5.764616    5.492348    3.778171
    513 1     2.010148    1.206197   12.096446
    514 2     3.003152    4.211038   19.772124
    515 1     4.209619    4.903901    7.191232
    516 2     7.802157    7.881953   26.086464
    517 1     7.871259    3.636967    2.977969
    518 2     1.401674    1.218131   23.051840
    519 1     2.312343    1.827835   17.487650
    520 2     4.620410    2.782777   15.722959
    521 1     5.401837    5.501186   22.862316
    522 2     1.015732    8.808483   13.061943
    523 1     4.759963    1.489715   22.943937
    524 2     5.557499    6.902940   24.275295
    525 1     4.193008    8.635005    8.566723
    526 2     5.362288    7.081493   14.265652
    527 1     2.012986    3.147116   24.121240
    528 2     3.971997    1.968020   13.151103
    529 1     8.841029    1.701772   12.626607
    530 2     8.374386    0.381327   10.343826
    531 1     5.853616    1.429682   20.234078
    532 2     8.321824    7.038271   27.845143
    533 1     0.601499    8.337208   25.077220
    534 2     8.541113    4.332623    4.307626
    535 1     4.798321    7.895932    7.556854
    536 2     1.657816    2.720764    5.896898
    537 1     4.894305    4.061021   13.265832
    538 2     7.855003    6.438793    3.924149
    539 1     7.533875    0.298100   26.867573
    540 2     5.689193    1.412248    1.000688
    541 1     7.046964    5.773370   24.860165
    542 2     3.016874    2.224014   18.325194
    543 1     4.253903    6.607301    0.793641
    544 2     9.124600    4.432300   24.324017
    545 1     3.519796    8.440451   11.695610
    546 2     3.694445    6.978968   15.956355
    547 1     2.329006    3.520284    6.459167
    548 2     7.484437    3.976902   20.547123
    549 1     3.662068    0.950520   16.874579
    550 2     8.059109    5.054788   12.926126
    551 1     4.960692    8.592889   24.444362
    552 2     7.757480    3.229095    9.641747
    553 1     4.569054    0.070512    0.289037
    554 2     1.281545    0.178527    6.694914
    555 1     7.512809    5.026956   21.505335
    556 2     1.433456    1.099688    6.207500
    557 1     6.233715    4.655192   22.573120
    558 2     4.972179    3.365248    5.064344
    559 1     5.739976    0.227310    0.985916
    560 2     6.288794    2.924365   25.134690
    561 1     0.706494    2.857939   13.330369
    562 2     5.374146    9.380210   11.644803
    563 1     3.066368    6.978250   18.809762
    564 2     2.912984    9.136872    3.346109
    565 1     7.260863    9.380533   24.519010
    566 2     0.521798    6.879025   12.801703
    567 1     4.136786    4.899814   22.450960
    568 2     3.953084    2.335318    3.657288
    569 1     9.024431    3.509083   18.007482
    570 2     9.121229    2.970676    3.617693
    571 1     9.037348    3.802002    3.227633
    572 2     5.455555    1.070757   22.301138
    573 1     4.837836    1.003041    8.688676
    574 2     5.145944    0.083684   19.611548
    575 1     4.308509    8.766038    6.817702
    576 2     6.146106    1.596970   13.603097
    577 1     2.681355    7.998028    8.487559
    578 2     5.038049    0.435340    4.322792
    579 1     6.895755    5.289018   22.194018
    580 2     4.628063    5.924393   19.755626
    581 1     0.568621    2.243262   14.959424
    582 2     4.729509    0.839095    1.518087
    583 1     9.054044    5.193962   10.993453
    584 2     4.381364    1.913383    1.190425
    585 1     8.505809    0.589126   26.679779
    586 2     3.308036    4.539177   13.539944
    587 1     0.785577    2.347905   18.791137
    588 2     8.111189    7.560676   20.563526
    589 1     2.766628    5.254432   10.881636
    590 2     7.517724    0.947241   24.963904
    591 1     6.773861    5.825444    9.939879
    592 2     3.346566    2.074768   17.403116
    593 1     8.008980    2.641060   10.566183
    594 2     0.583460    3.536234   24.179840
    595 1     1.942778    3.744747   10.057792
    596 2     3.999140    4.647907   21.476073
    597 1     1.735860    7.548424   13.306899
    598 2     8.164299    1.708900   25.799599
    599 1     6.257462    6.429018   16.455962
    600 2     7.794173    4.070654   11.881205
    601 1     5.348800    1.623549   10.967161
    602 2     2.774546    3.092764   12.278152
    603 1     1.303712    7.053697    4.645479
    604 2     5.882945    3.918072   10.866988
    605 1     0.295162    4.280227   25.637491
    606 2     0.357091    2.708339   10.446078
    607 1     2.109192    5.004045    5.772815
    608 2     1.259837    8.644734   14.151487
    609 1     6.640449    2.300166   11.839407
    610 2     8.382236    5.615604   10.286210
    611 1     7.754815    6.159208    1.829486
    612 2     7.724829    5.128463   17.663606
    613 1     8.532897    3.614052   20.807641
    614 2     0.517556    2.838622   25.476822
    615 1     2.178066    2.393587   11.777970
    616 2     3.314125    8.865469   16.513033
    617 1     9.192213    8.378117   12.382070
    618 2     6.917642    3.957314    4.453156
    619 1     2.531772    2.123787   14.393990
    620 2     4.765534    1.330978    5.926424
    621 1     2.420899    4.607207    3.581094
    622 2     3.829661    8.008142   22.918277
    623 1     5.289652    7.822679   13.406740
    624 2     9.268180    0.031151   27.139857
    625 1     7.018189    6.534821   28.027962
    626 2     9.179536    7.508206   15.180007
    627 1     3.060485    6.412198    2.776164
    628 2     2.662174    7.652449    5.994295
    629 1     1.058089    7.676007   22.368497
    630 2     4.174161    9.355832    2.311620
    631 1     8.905215    8.782623   23.422333
    632 2     5.275022    4.300684    9.179886
    633 1     2.369934    6.976673   14.385006